M 0.0 nn 10 x 1500 y 1500 rp 
M 0.0 prop Propagation/TwoRayGround ant Antenna/OmniAntenna
M 0.10000 0 (1035.20, 444.70, 0.00), (786.00, 813.00), 20.00
M 0.10000 1 (244.37, 521.42, 0.00), (895.00, 890.00), 20.00
M 0.10000 2 (-18.13, 300.61, 0.00), (633.00, 669.00), 20.00
M 0.10000 3 (723.89, 343.53, 0.00), (1375.00, 712.00), 20.00
M 0.10000 4 (122.34, 311.75, 0.00), (773.00, 680.00), 20.00
M 0.10000 5 (373.50, 472.21, 0.00), (1024.00, 841.00), 20.00
M 0.10000 6 (548.55, 361.06, 0.00), (1199.00, 730.00), 20.00
M 0.10000 7 (390.00, 381.18, 0.00), (1041.00, 750.00), 20.00
M 0.10000 8 (494.80, 477.77, 0.00), (1146.00, 846.00), 20.00
M 0.10000 9 (275.01, 381.99, 0.00), (926.00, 751.00), 20.00
s 1.000000000 _2_ AGT  --- 0 cbr 1000 [0 0 0 0] [energy 100.000000 ei 0.000 es 0.000 et 0.000 er 0.000] ------- [2:0 3:0 32 0] [0] 0 0
r 1.000000000 _2_ RTR  --- 0 cbr 1000 [0 0 0 0] [energy 100.000000 ei 0.000 es 0.000 et 0.000 er 0.000] ------- [2:0 3:0 32 0] [0] 0 0
s 1.000000000 _2_ RTR  --- 0 AODV 48 [0 0 0 0] [energy 100.000000 ei 0.000 es 0.000 et 0.000 er 0.000] ------- [2:255 -1:255 30 0] [0x2 1 1 [3 0] [2 4]] (REQUEST)
N -t 1.000535 -n 4 -e 99.999746
N -t 1.000536 -n 9 -e 99.999746
N -t 1.000536 -n 1 -e 99.999746
N -t 1.000536 -n 7 -e 99.999746
N -t 1.000536 -n 5 -e 99.999746
N -t 1.000537 -n 8 -e 99.999746
r 1.001408470 _4_ RTR  --- 0 AODV 48 [0 ffffffff 2 800] [energy 99.999746 ei 0.000 es 0.000 et 0.000 er 0.000] ------- [2:255 -1:255 30 0] [0x2 1 1 [3 0] [2 4]] (REQUEST)
s 1.001550516 _4_ RTR  --- 0 AODV 48 [0 ffffffff 2 800] [energy 99.999746 ei 0.000 es 0.000 et 0.000 er 0.000] ------- [4:255 -1:255 29 0] [0x2 2 1 [3 0] [2 4]] (REQUEST)
N -t 1.001926 -n 2 -e 99.999237
N -t 1.001926 -n 9 -e 99.999491
N -t 1.001926 -n 1 -e 99.999491
N -t 1.001926 -n 7 -e 99.999491
N -t 1.001927 -n 5 -e 99.999491
N -t 1.001927 -n 8 -e 99.999491
N -t 1.001927 -n 6 -e 99.999746
r 1.002798986 _2_ RTR  --- 0 AODV 48 [0 ffffffff 4 800] [energy 99.999237 ei 0.000 es 0.000 et 0.001 er 0.000] ------- [4:255 -1:255 29 0] [0x2 2 1 [3 0] [2 4]] (REQUEST)
r 1.002799076 _9_ RTR  --- 0 AODV 48 [0 ffffffff 4 800] [energy 99.999491 ei 0.000 es 0.000 et 0.000 er 0.001] ------- [4:255 -1:255 29 0] [0x2 2 1 [3 0] [2 4]] (REQUEST)
r 1.002799325 _1_ RTR  --- 0 AODV 48 [0 ffffffff 4 800] [energy 99.999491 ei 0.000 es 0.000 et 0.000 er 0.001] ------- [4:255 -1:255 29 0] [0x2 2 1 [3 0] [2 4]] (REQUEST)
s 1.005928943 _1_ RTR  --- 0 AODV 48 [0 ffffffff 4 800] [energy 99.999491 ei 0.000 es 0.000 et 0.000 er 0.001] ------- [1:255 -1:255 28 0] [0x2 3 1 [3 0] [2 4]] (REQUEST)
N -t 1.006204 -n 5 -e 99.999237
N -t 1.006204 -n 9 -e 99.999237
N -t 1.006205 -n 7 -e 99.999237
N -t 1.006205 -n 4 -e 99.998982
N -t 1.006205 -n 8 -e 99.999237
N -t 1.006205 -n 2 -e 99.998982
N -t 1.006205 -n 6 -e 99.999491
N -t 1.006206 -n 3 -e 99.999746
r 1.007077403 _5_ RTR  --- 0 AODV 48 [0 ffffffff 1 800] [energy 99.999237 ei 0.000 es 0.000 et 0.000 er 0.001] ------- [1:255 -1:255 28 0] [0x2 3 1 [3 0] [2 4]] (REQUEST)
r 1.007077418 _9_ RTR  --- 0 AODV 48 [0 ffffffff 1 800] [energy 99.999237 ei 0.000 es 0.000 et 0.000 er 0.001] ------- [1:255 -1:255 28 0] [0x2 3 1 [3 0] [2 4]] (REQUEST)
r 1.007077617 _7_ RTR  --- 0 AODV 48 [0 ffffffff 1 800] [energy 99.999237 ei 0.000 es 0.000 et 0.000 er 0.001] ------- [1:255 -1:255 28 0] [0x2 3 1 [3 0] [2 4]] (REQUEST)
r 1.007077751 _4_ RTR  --- 0 AODV 48 [0 ffffffff 1 800] [energy 99.998982 ei 0.000 es 0.000 et 0.001 er 0.001] ------- [1:255 -1:255 28 0] [0x2 3 1 [3 0] [2 4]] (REQUEST)
s 1.010168407 _7_ RTR  --- 0 AODV 48 [0 ffffffff 1 800] [energy 99.999237 ei 0.000 es 0.000 et 0.000 er 0.001] ------- [7:255 -1:255 27 0] [0x2 4 1 [3 0] [2 4]] (REQUEST)
N -t 1.010484 -n 5 -e 99.998982
N -t 1.010484 -n 9 -e 99.998982
N -t 1.010484 -n 8 -e 99.998982
N -t 1.010484 -n 6 -e 99.999237
N -t 1.010484 -n 1 -e 99.998728
N -t 1.010484 -n 4 -e 99.998728
N -t 1.010485 -n 3 -e 99.999491
N -t 1.010485 -n 2 -e 99.998728
s 1.010790631 _9_ RTR  --- 0 AODV 48 [0 ffffffff 4 800] [energy 99.998982 ei 0.000 es 0.000 et 0.000 er 0.001] ------- [9:255 -1:255 28 0] [0x2 3 1 [3 0] [2 4]] (REQUEST)
r 1.011356716 _5_ RTR  --- 0 AODV 48 [0 ffffffff 7 800] [energy 99.998982 ei 0.000 es 0.000 et 0.000 er 0.001] ------- [7:255 -1:255 27 0] [0x2 4 1 [3 0] [2 4]] (REQUEST)
r 1.011356790 _9_ RTR  --- 0 AODV 48 [0 ffffffff 7 800] [energy 99.998982 ei 0.000 es 0.000 et 0.000 er 0.001] ------- [7:255 -1:255 27 0] [0x2 4 1 [3 0] [2 4]] (REQUEST)
r 1.011356882 _8_ RTR  --- 0 AODV 48 [0 ffffffff 7 800] [energy 99.998982 ei 0.000 es 0.000 et 0.000 er 0.001] ------- [7:255 -1:255 27 0] [0x2 4 1 [3 0] [2 4]] (REQUEST)
r 1.011356940 _6_ RTR  --- 0 AODV 48 [0 ffffffff 7 800] [energy 99.999237 ei 0.000 es 0.000 et 0.000 er 0.001] ------- [7:255 -1:255 27 0] [0x2 4 1 [3 0] [2 4]] (REQUEST)
r 1.011357081 _1_ RTR  --- 0 AODV 48 [0 ffffffff 7 800] [energy 99.998728 ei 0.000 es 0.000 et 0.001 er 0.001] ------- [7:255 -1:255 27 0] [0x2 4 1 [3 0] [2 4]] (REQUEST)
N -t 1.011422 -n 7 -e 99.998474
N -t 1.011422 -n 5 -e 99.998728
N -t 1.011422 -n 1 -e 99.998474
N -t 1.011422 -n 4 -e 99.998474
N -t 1.011423 -n 8 -e 99.998728
N -t 1.011423 -n 6 -e 99.998982
N -t 1.011423 -n 2 -e 99.998474
N -t 1.011423 -n 3 -e 99.999237
r 1.012295174 _7_ RTR  --- 0 AODV 48 [0 ffffffff 9 800] [energy 99.998474 ei 0.000 es 0.000 et 0.001 er 0.001] ------- [9:255 -1:255 28 0] [0x2 3 1 [3 0] [2 4]] (REQUEST)
r 1.012295236 _5_ RTR  --- 0 AODV 48 [0 ffffffff 9 800] [energy 99.998728 ei 0.000 es 0.000 et 0.000 er 0.001] ------- [9:255 -1:255 28 0] [0x2 3 1 [3 0] [2 4]] (REQUEST)
r 1.012295266 _1_ RTR  --- 0 AODV 48 [0 ffffffff 9 800] [energy 99.998474 ei 0.000 es 0.000 et 0.001 er 0.001] ------- [9:255 -1:255 28 0] [0x2 3 1 [3 0] [2 4]] (REQUEST)
r 1.012295351 _4_ RTR  --- 0 AODV 48 [0 ffffffff 9 800] [energy 99.998474 ei 0.000 es 0.000 et 0.001 er 0.001] ------- [9:255 -1:255 28 0] [0x2 3 1 [3 0] [2 4]] (REQUEST)
r 1.012295590 _8_ RTR  --- 0 AODV 48 [0 ffffffff 9 800] [energy 99.998728 ei 0.000 es 0.000 et 0.000 er 0.001] ------- [9:255 -1:255 28 0] [0x2 3 1 [3 0] [2 4]] (REQUEST)
s 1.012495022 _6_ RTR  --- 0 AODV 48 [0 ffffffff 7 800] [energy 99.998982 ei 0.000 es 0.000 et 0.000 er 0.001] ------- [6:255 -1:255 26 0] [0x2 5 1 [3 0] [2 4]] (REQUEST)
N -t 1.012845 -n 8 -e 99.998474
N -t 1.012845 -n 7 -e 99.998219
N -t 1.012845 -n 3 -e 99.998982
N -t 1.012845 -n 5 -e 99.998474
N -t 1.012846 -n 9 -e 99.998219
N -t 1.012846 -n 1 -e 99.998219
N -t 1.012846 -n 4 -e 99.998219
N -t 1.012846 -n 0 -e 99.999746
s 1.013466055 _5_ RTR  --- 0 AODV 48 [0 ffffffff 1 800] [energy 99.998474 ei 0.000 es 0.000 et 0.000 er 0.002] ------- [5:255 -1:255 27 0] [0x2 4 1 [3 0] [2 4]] (REQUEST)
r 1.013718133 _8_ RTR  --- 0 AODV 48 [0 ffffffff 6 800] [energy 99.998474 ei 0.000 es 0.000 et 0.000 er 0.002] ------- [6:255 -1:255 26 0] [0x2 5 1 [3 0] [2 4]] (REQUEST)
r 1.013718238 _7_ RTR  --- 0 AODV 48 [0 ffffffff 6 800] [energy 99.998219 ei 0.000 es 0.000 et 0.001 er 0.001] ------- [6:255 -1:255 26 0] [0x2 5 1 [3 0] [2 4]] (REQUEST)
r 1.013718292 _3_ RTR  --- 0 AODV 48 [0 ffffffff 6 800] [energy 99.998982 ei 0.000 es 0.000 et 0.000 er 0.001] ------- [6:255 -1:255 26 0] [0x2 5 1 [3 0] [2 4]] (REQUEST)
s 1.013718292 _3_ RTR  --- 0 AODV 44 [0 0 0 0] [energy 99.998982 ei 0.000 es 0.000 et 0.000 er 0.001] ------- [3:255 2:255 30 6] [0x4 1 [3 4] 10.000000] (REPLY)
r 1.013718396 _5_ RTR  --- 0 AODV 48 [0 ffffffff 6 800] [energy 99.998474 ei 0.000 es 0.000 et 0.000 er 0.002] ------- [6:255 -1:255 26 0] [0x2 5 1 [3 0] [2 4]] (REQUEST)
N -t 1.014094 -n 6 -e 99.998267
N -t 1.014094 -n 8 -e 99.998267
N -t 1.014094 -n 0 -e 99.999539
N -t 1.014094 -n 7 -e 99.998013
N -t 1.014095 -n 5 -e 99.998267
N -t 1.014095 -n 9 -e 99.998013
N -t 1.014095 -n 1 -e 99.998013
N -t 1.015057 -n 8 -e 99.998162
N -t 1.015057 -n 7 -e 99.997907
N -t 1.015057 -n 3 -e 99.998464
N -t 1.015058 -n 5 -e 99.998162
N -t 1.015058 -n 9 -e 99.997907
N -t 1.015058 -n 1 -e 99.997907
N -t 1.015058 -n 4 -e 99.998114
N -t 1.015058 -n 0 -e 99.999434
N -t 1.015420 -n 6 -e 99.997965
N -t 1.015420 -n 8 -e 99.998070
N -t 1.015420 -n 0 -e 99.999342
N -t 1.015421 -n 7 -e 99.997816
N -t 1.015421 -n 5 -e 99.998070
N -t 1.015421 -n 9 -e 99.997816
N -t 1.015421 -n 1 -e 99.997816
N -t 1.015734 -n 8 -e 99.997864
N -t 1.015735 -n 7 -e 99.997610
N -t 1.015735 -n 3 -e 99.998075
N -t 1.015735 -n 5 -e 99.997864
N -t 1.015735 -n 9 -e 99.997610
N -t 1.015735 -n 1 -e 99.997610
N -t 1.015735 -n 4 -e 99.997907
N -t 1.015736 -n 0 -e 99.999136
N -t 1.016433 -n 6 -e 99.997461
N -t 1.016434 -n 8 -e 99.997773
N -t 1.016434 -n 0 -e 99.999045
N -t 1.016434 -n 7 -e 99.997518
N -t 1.016434 -n 5 -e 99.997773
N -t 1.016434 -n 9 -e 99.997518
N -t 1.016434 -n 1 -e 99.997518
N -t 1.016807 -n 6 -e 99.997355
N -t 1.016808 -n 8 -e 99.997667
N -t 1.016808 -n 0 -e 99.998939
N -t 1.016808 -n 7 -e 99.997413
N -t 1.016808 -n 5 -e 99.997667
N -t 1.016808 -n 9 -e 99.997413
N -t 1.016808 -n 1 -e 99.997413
N -t 1.017170 -n 8 -e 99.997576
N -t 1.017170 -n 7 -e 99.997322
N -t 1.017170 -n 3 -e 99.997590
N -t 1.017170 -n 5 -e 99.997576
N -t 1.017170 -n 9 -e 99.997322
N -t 1.017170 -n 1 -e 99.997322
N -t 1.017171 -n 4 -e 99.997816
N -t 1.017171 -n 0 -e 99.998848
N -t 1.017484 -n 6 -e 99.996928
N -t 1.017485 -n 8 -e 99.997331
N -t 1.017485 -n 0 -e 99.998603
N -t 1.017485 -n 7 -e 99.997077
N -t 1.017485 -n 5 -e 99.997331
N -t 1.017485 -n 9 -e 99.997077
N -t 1.017486 -n 1 -e 99.997077
s 1.017757559 _8_ RTR  --- 0 AODV 48 [0 ffffffff 7 800] [energy 99.997331 ei 0.000 es 0.000 et 0.000 er 0.003] ------- [8:255 -1:255 26 0] [0x2 5 1 [3 0] [2 4]] (REQUEST)
N -t 1.018311 -n 8 -e 99.997240
N -t 1.018311 -n 7 -e 99.996986
N -t 1.018311 -n 3 -e 99.997010
N -t 1.018311 -n 5 -e 99.997240
N -t 1.018311 -n 9 -e 99.996986
N -t 1.018312 -n 1 -e 99.996986
N -t 1.018312 -n 4 -e 99.997725
N -t 1.018312 -n 0 -e 99.998512
r 1.018325404 _6_ RTR  --- 0 AODV 44 [13a 6 3 800] [energy 99.996746 ei 0.000 es 0.000 et 0.001 er 0.002] ------- [3:255 2:255 30 6] [0x4 1 [3 4] 10.000000] (REPLY)
f 1.018325404 _6_ RTR  --- 0 AODV 44 [13a 6 3 800] [energy 99.996746 ei 0.000 es 0.000 et 0.001 er 0.002] ------- [3:255 2:255 29 7] [0x4 2 [3 4] 10.000000] (REPLY)
N -t 1.018855 -n 7 -e 99.996731
N -t 1.018855 -n 8 -e 99.996986
N -t 1.018856 -n 9 -e 99.996731
N -t 1.018856 -n 1 -e 99.996731
N -t 1.018856 -n 6 -e 99.996491
N -t 1.018856 -n 4 -e 99.997470
N -t 1.018856 -n 3 -e 99.996755
N -t 1.018856 -n 2 -e 99.998219
r 1.019728369 _7_ RTR  --- 0 AODV 48 [0 ffffffff 5 800] [energy 99.996731 ei 0.000 es 0.000 et 0.001 er 0.003] ------- [5:255 -1:255 27 0] [0x2 4 1 [3 0] [2 4]] (REQUEST)
r 1.019728466 _8_ RTR  --- 0 AODV 48 [0 ffffffff 5 800] [energy 99.996986 ei 0.000 es 0.000 et 0.000 er 0.003] ------- [5:255 -1:255 27 0] [0x2 4 1 [3 0] [2 4]] (REQUEST)
r 1.019728506 _9_ RTR  --- 0 AODV 48 [0 ffffffff 5 800] [energy 99.996731 ei 0.000 es 0.000 et 0.001 er 0.003] ------- [5:255 -1:255 27 0] [0x2 4 1 [3 0] [2 4]] (REQUEST)
r 1.019728522 _1_ RTR  --- 0 AODV 48 [0 ffffffff 5 800] [energy 99.996731 ei 0.000 es 0.000 et 0.001 er 0.003] ------- [5:255 -1:255 27 0] [0x2 4 1 [3 0] [2 4]] (REQUEST)
r 1.019728752 _6_ RTR  --- 0 AODV 48 [0 ffffffff 5 800] [energy 99.996491 ei 0.000 es 0.000 et 0.001 er 0.002] ------- [5:255 -1:255 27 0] [0x2 4 1 [3 0] [2 4]] (REQUEST)
N -t 1.019794 -n 8 -e 99.996779
N -t 1.019794 -n 7 -e 99.996525
N -t 1.019794 -n 3 -e 99.996549
N -t 1.019794 -n 5 -e 99.996525
N -t 1.019795 -n 9 -e 99.996525
N -t 1.019795 -n 1 -e 99.996525
N -t 1.019795 -n 4 -e 99.997264
N -t 1.019795 -n 0 -e 99.998306
N -t 1.020793 -n 5 -e 99.996270
N -t 1.020793 -n 6 -e 99.995824
N -t 1.020793 -n 7 -e 99.996270
N -t 1.020793 -n 9 -e 99.996270
N -t 1.020793 -n 1 -e 99.996270
N -t 1.020793 -n 3 -e 99.996294
N -t 1.020794 -n 4 -e 99.997010
N -t 1.020794 -n 0 -e 99.998051
N -t 1.020794 -n 2 -e 99.997965
r 1.021665585 _5_ RTR  --- 0 AODV 48 [0 ffffffff 8 800] [energy 99.996270 ei 0.000 es 0.000 et 0.001 er 0.003] ------- [8:255 -1:255 26 0] [0x2 5 1 [3 0] [2 4]] (REQUEST)
r 1.021665609 _6_ RTR  --- 0 AODV 48 [0 ffffffff 8 800] [energy 99.995824 ei 0.000 es 0.000 et 0.002 er 0.002] ------- [8:255 -1:255 26 0] [0x2 5 1 [3 0] [2 4]] (REQUEST)
r 1.021665656 _7_ RTR  --- 0 AODV 48 [0 ffffffff 8 800] [energy 99.996270 ei 0.000 es 0.000 et 0.001 er 0.003] ------- [8:255 -1:255 26 0] [0x2 5 1 [3 0] [2 4]] (REQUEST)
r 1.021665980 _9_ RTR  --- 0 AODV 48 [0 ffffffff 8 800] [energy 99.996270 ei 0.000 es 0.000 et 0.001 er 0.003] ------- [8:255 -1:255 26 0] [0x2 5 1 [3 0] [2 4]] (REQUEST)
N -t 1.021991 -n 5 -e 99.996165
N -t 1.021991 -n 9 -e 99.996165
N -t 1.021991 -n 8 -e 99.996165
N -t 1.021991 -n 6 -e 99.995718
N -t 1.021991 -n 1 -e 99.996165
N -t 1.021992 -n 4 -e 99.996904
N -t 1.021992 -n 3 -e 99.996189
N -t 1.021992 -n 2 -e 99.997859
N -t 1.022354 -n 8 -e 99.996074
N -t 1.022354 -n 7 -e 99.995968
N -t 1.022354 -n 3 -e 99.996098
N -t 1.022354 -n 5 -e 99.996074
N -t 1.022354 -n 9 -e 99.996074
N -t 1.022354 -n 1 -e 99.996074
N -t 1.022355 -n 4 -e 99.996813
N -t 1.022355 -n 0 -e 99.997960
N -t 1.022668 -n 5 -e 99.995867
N -t 1.022668 -n 9 -e 99.995867
N -t 1.022668 -n 8 -e 99.995867
N -t 1.022668 -n 6 -e 99.995330
N -t 1.022668 -n 1 -e 99.995867
N -t 1.022669 -n 4 -e 99.996606
N -t 1.022669 -n 3 -e 99.995891
N -t 1.022669 -n 2 -e 99.997653
N -t 1.023367 -n 8 -e 99.995776
N -t 1.023367 -n 7 -e 99.995464
N -t 1.023367 -n 3 -e 99.995800
N -t 1.023367 -n 5 -e 99.995776
N -t 1.023367 -n 9 -e 99.995776
N -t 1.023367 -n 1 -e 99.995776
N -t 1.023368 -n 4 -e 99.996515
N -t 1.023368 -n 0 -e 99.997869
N -t 1.023761 -n 8 -e 99.995670
N -t 1.023761 -n 7 -e 99.995358
N -t 1.023761 -n 3 -e 99.995694
N -t 1.023761 -n 5 -e 99.995670
N -t 1.023761 -n 9 -e 99.995670
N -t 1.023761 -n 1 -e 99.995670
N -t 1.023762 -n 4 -e 99.996410
N -t 1.023762 -n 0 -e 99.997763
N -t 1.024123 -n 5 -e 99.995579
N -t 1.024123 -n 9 -e 99.995579
N -t 1.024123 -n 8 -e 99.995579
N -t 1.024123 -n 6 -e 99.994845
N -t 1.024123 -n 1 -e 99.995579
N -t 1.024124 -n 4 -e 99.996318
N -t 1.024124 -n 3 -e 99.995603
N -t 1.024124 -n 2 -e 99.997562
N -t 1.024438 -n 8 -e 99.995334
N -t 1.024438 -n 7 -e 99.994931
N -t 1.024438 -n 3 -e 99.995358
N -t 1.024438 -n 5 -e 99.995334
N -t 1.024438 -n 9 -e 99.995334
N -t 1.024438 -n 1 -e 99.995334
N -t 1.024439 -n 4 -e 99.996074
N -t 1.024439 -n 0 -e 99.997518
N -t 1.025264 -n 5 -e 99.995243
N -t 1.025264 -n 9 -e 99.995243
N -t 1.025264 -n 8 -e 99.995243
N -t 1.025264 -n 6 -e 99.994264
N -t 1.025265 -n 1 -e 99.995243
N -t 1.025265 -n 4 -e 99.995982
N -t 1.025265 -n 3 -e 99.995267
N -t 1.025265 -n 2 -e 99.997470
r 1.025278852 _7_ RTR  --- 0 AODV 44 [13a 7 6 800] [energy 99.994749 ei 0.000 es 0.000 et 0.001 er 0.004] ------- [3:255 2:255 29 7] [0x4 2 [3 4] 10.000000] (REPLY)
f 1.025278852 _7_ RTR  --- 0 AODV 44 [13a 7 6 800] [energy 99.994749 ei 0.000 es 0.000 et 0.001 er 0.004] ------- [3:255 2:255 28 1] [0x4 3 [3 4] 10.000000] (REPLY)
N -t 1.025898 -n 5 -e 99.995037
N -t 1.025898 -n 9 -e 99.995037
N -t 1.025898 -n 8 -e 99.995037
N -t 1.025898 -n 6 -e 99.994058
N -t 1.025899 -n 1 -e 99.995037
N -t 1.025899 -n 4 -e 99.995776
N -t 1.025899 -n 3 -e 99.995061
N -t 1.025899 -n 2 -e 99.997264
N -t 1.026722 -n 5 -e 99.994931
N -t 1.026722 -n 9 -e 99.994931
N -t 1.026722 -n 7 -e 99.994230
N -t 1.026722 -n 4 -e 99.995670
N -t 1.026722 -n 8 -e 99.994931
N -t 1.026723 -n 2 -e 99.997158
N -t 1.026723 -n 6 -e 99.993952
N -t 1.026723 -n 3 -e 99.994955
N -t 1.027085 -n 5 -e 99.994840
N -t 1.027085 -n 9 -e 99.994840
N -t 1.027085 -n 8 -e 99.994840
N -t 1.027085 -n 6 -e 99.993861
N -t 1.027085 -n 1 -e 99.994734
N -t 1.027085 -n 4 -e 99.995579
N -t 1.027085 -n 3 -e 99.994864
N -t 1.027086 -n 2 -e 99.997067
N -t 1.027399 -n 5 -e 99.994634
N -t 1.027399 -n 9 -e 99.994634
N -t 1.027400 -n 7 -e 99.993842
N -t 1.027400 -n 4 -e 99.995373
N -t 1.027400 -n 8 -e 99.994634
N -t 1.027400 -n 2 -e 99.996861
N -t 1.027400 -n 6 -e 99.993654
N -t 1.027401 -n 3 -e 99.994658
N -t 1.028098 -n 5 -e 99.994542
N -t 1.028098 -n 9 -e 99.994542
N -t 1.028098 -n 8 -e 99.994542
N -t 1.028098 -n 6 -e 99.993563
N -t 1.028098 -n 1 -e 99.994230
N -t 1.028098 -n 4 -e 99.995282
N -t 1.028099 -n 3 -e 99.994566
N -t 1.028099 -n 2 -e 99.996770
N -t 1.028512 -n 5 -e 99.994437
N -t 1.028512 -n 9 -e 99.994437
N -t 1.028512 -n 8 -e 99.994437
N -t 1.028512 -n 6 -e 99.993458
N -t 1.028512 -n 1 -e 99.994125
N -t 1.028512 -n 4 -e 99.995176
N -t 1.028513 -n 3 -e 99.994461
N -t 1.028513 -n 2 -e 99.996664
N -t 1.028875 -n 5 -e 99.994346
N -t 1.028875 -n 9 -e 99.994346
N -t 1.028875 -n 7 -e 99.993357
N -t 1.028875 -n 4 -e 99.995085
N -t 1.028875 -n 8 -e 99.994346
N -t 1.028875 -n 2 -e 99.996573
N -t 1.028875 -n 6 -e 99.993366
N -t 1.028876 -n 3 -e 99.994370
N -t 1.029189 -n 5 -e 99.994101
N -t 1.029189 -n 9 -e 99.994101
N -t 1.029189 -n 8 -e 99.994101
N -t 1.029189 -n 6 -e 99.993122
N -t 1.029190 -n 1 -e 99.993698
N -t 1.029190 -n 4 -e 99.994840
N -t 1.029190 -n 3 -e 99.994125
N -t 1.029190 -n 2 -e 99.996328
N -t 1.030016 -n 5 -e 99.994010
N -t 1.030016 -n 9 -e 99.994010
N -t 1.030016 -n 7 -e 99.992776
N -t 1.030016 -n 4 -e 99.994749
N -t 1.030016 -n 8 -e 99.994010
N -t 1.030017 -n 2 -e 99.996237
N -t 1.030017 -n 6 -e 99.993030
N -t 1.030017 -n 3 -e 99.994034
r 1.030030569 _1_ RTR  --- 0 AODV 44 [13a 1 7 800] [energy 99.993515 ei 0.000 es 0.000 et 0.001 er 0.005] ------- [3:255 2:255 28 1] [0x4 3 [3 4] 10.000000] (REPLY)
f 1.030030569 _1_ RTR  --- 0 AODV 44 [13a 1 7 800] [energy 99.993515 ei 0.000 es 0.000 et 0.001 er 0.005] ------- [3:255 2:255 27 4] [0x4 4 [3 4] 10.000000] (REPLY)
N -t 1.030610 -n 5 -e 99.993803
N -t 1.030610 -n 9 -e 99.993803
N -t 1.030610 -n 7 -e 99.992570
N -t 1.030610 -n 4 -e 99.994542
N -t 1.030610 -n 8 -e 99.993803
N -t 1.030611 -n 2 -e 99.996030
N -t 1.030611 -n 6 -e 99.992824
N -t 1.030611 -n 3 -e 99.993827
N -t 1.031874 -n 2 -e 99.995925
N -t 1.031874 -n 9 -e 99.993698
N -t 1.031874 -n 1 -e 99.992997
N -t 1.031874 -n 7 -e 99.992464
N -t 1.031874 -n 5 -e 99.993698
N -t 1.031875 -n 8 -e 99.993698
N -t 1.031875 -n 6 -e 99.992718
N -t 1.032237 -n 5 -e 99.993606
N -t 1.032237 -n 9 -e 99.993606
N -t 1.032237 -n 7 -e 99.992373
N -t 1.032237 -n 4 -e 99.994240
N -t 1.032237 -n 8 -e 99.993606
N -t 1.032237 -n 2 -e 99.995834
N -t 1.032237 -n 6 -e 99.992627
N -t 1.032238 -n 3 -e 99.993736
N -t 1.032551 -n 2 -e 99.995627
N -t 1.032552 -n 9 -e 99.993400
N -t 1.032552 -n 1 -e 99.992608
N -t 1.032552 -n 7 -e 99.992166
N -t 1.032552 -n 5 -e 99.993400
N -t 1.032552 -n 8 -e 99.993400
N -t 1.032552 -n 6 -e 99.992421
N -t 1.033250 -n 5 -e 99.993309
N -t 1.033250 -n 9 -e 99.993309
N -t 1.033250 -n 7 -e 99.992075
N -t 1.033251 -n 4 -e 99.993736
N -t 1.033251 -n 8 -e 99.993309
N -t 1.033251 -n 2 -e 99.995536
N -t 1.033251 -n 6 -e 99.992330
N -t 1.033252 -n 3 -e 99.993645
N -t 1.033824 -n 5 -e 99.993203
N -t 1.033824 -n 9 -e 99.993203
N -t 1.033824 -n 7 -e 99.991970
N -t 1.033825 -n 4 -e 99.993630
N -t 1.033825 -n 8 -e 99.993203
N -t 1.033825 -n 2 -e 99.995430
N -t 1.033825 -n 6 -e 99.992224
N -t 1.033826 -n 3 -e 99.993539
N -t 1.034187 -n 2 -e 99.995339
N -t 1.034187 -n 9 -e 99.993112
N -t 1.034187 -n 1 -e 99.992123
N -t 1.034188 -n 7 -e 99.991878
N -t 1.034188 -n 5 -e 99.993112
N -t 1.034188 -n 8 -e 99.993112
N -t 1.034188 -n 6 -e 99.992133
N -t 1.034502 -n 5 -e 99.992867
N -t 1.034502 -n 9 -e 99.992867
N -t 1.034502 -n 7 -e 99.991634
N -t 1.034502 -n 4 -e 99.993203
N -t 1.034502 -n 8 -e 99.992867
N -t 1.034503 -n 2 -e 99.995094
N -t 1.034503 -n 6 -e 99.991888
N -t 1.034503 -n 3 -e 99.993294
N -t 1.035329 -n 2 -e 99.995003
N -t 1.035329 -n 9 -e 99.992776
N -t 1.035329 -n 1 -e 99.991542
N -t 1.035329 -n 7 -e 99.991542
N -t 1.035329 -n 5 -e 99.992776
N -t 1.035330 -n 8 -e 99.992776
N -t 1.035330 -n 6 -e 99.991797
r 1.035343230 _4_ RTR  --- 0 AODV 44 [13a 4 1 800] [energy 99.993021 ei 0.000 es 0.000 et 0.001 er 0.005] ------- [3:255 2:255 27 4] [0x4 4 [3 4] 10.000000] (REPLY)
f 1.035343230 _4_ RTR  --- 0 AODV 44 [13a 4 1 800] [energy 99.993021 ei 0.000 es 0.000 et 0.001 er 0.005] ------- [3:255 2:255 26 2] [0x4 5 [3 4] 10.000000] (REPLY)
N -t 1.036263 -n 2 -e 99.994797
N -t 1.036263 -n 9 -e 99.992570
N -t 1.036263 -n 1 -e 99.991336
N -t 1.036263 -n 7 -e 99.991336
N -t 1.036263 -n 5 -e 99.992570
N -t 1.036264 -n 8 -e 99.992570
N -t 1.036264 -n 6 -e 99.991590
N -t 1.037346 -n 4 -e 99.992502
N -t 1.037347 -n 9 -e 99.992464
N -t 1.037347 -n 1 -e 99.991230
N -t 1.037347 -n 7 -e 99.991230
N -t 1.037347 -n 5 -e 99.992464
N -t 1.037348 -n 8 -e 99.992464
N -t 1.037709 -n 2 -e 99.994494
N -t 1.037709 -n 9 -e 99.992373
N -t 1.037709 -n 1 -e 99.991139
N -t 1.037709 -n 7 -e 99.991139
N -t 1.037709 -n 5 -e 99.992373
N -t 1.037710 -n 8 -e 99.992373
N -t 1.037710 -n 6 -e 99.991499
N -t 1.038023 -n 4 -e 99.992114
N -t 1.038024 -n 9 -e 99.992166
N -t 1.038024 -n 1 -e 99.990933
N -t 1.038024 -n 7 -e 99.990933
N -t 1.038024 -n 5 -e 99.992166
N -t 1.038024 -n 8 -e 99.992166
N -t 1.038722 -n 2 -e 99.993990
N -t 1.038722 -n 9 -e 99.992075
N -t 1.038722 -n 1 -e 99.990842
N -t 1.038722 -n 7 -e 99.990842
N -t 1.038722 -n 5 -e 99.992075
N -t 1.038722 -n 8 -e 99.992075
N -t 1.038723 -n 6 -e 99.991408
N -t 1.039576 -n 2 -e 99.993885
N -t 1.039576 -n 9 -e 99.991970
N -t 1.039576 -n 1 -e 99.990736
N -t 1.039576 -n 7 -e 99.990736
N -t 1.039576 -n 5 -e 99.991970
N -t 1.039576 -n 8 -e 99.991970
N -t 1.039577 -n 6 -e 99.991302
N -t 1.039938 -n 4 -e 99.991629
N -t 1.039939 -n 9 -e 99.991878
N -t 1.039939 -n 1 -e 99.990645
N -t 1.039939 -n 7 -e 99.990645
N -t 1.039939 -n 5 -e 99.991878
N -t 1.039939 -n 8 -e 99.991878
N -t 1.040253 -n 2 -e 99.993458
N -t 1.040253 -n 9 -e 99.991634
N -t 1.040253 -n 1 -e 99.990400
N -t 1.040253 -n 7 -e 99.990400
N -t 1.040253 -n 5 -e 99.991634
N -t 1.040253 -n 8 -e 99.991634
N -t 1.040253 -n 6 -e 99.991058
N -t 1.041079 -n 4 -e 99.991048
N -t 1.041080 -n 9 -e 99.991542
N -t 1.041080 -n 1 -e 99.990309
N -t 1.041080 -n 7 -e 99.990309
N -t 1.041080 -n 5 -e 99.991542
N -t 1.041080 -n 8 -e 99.991542
r 1.041093518 _2_ RTR  --- 0 AODV 44 [13a 2 4 800] [energy 99.993275 ei 0.000 es 0.000 et 0.001 er 0.005] ------- [3:255 2:255 26 2] [0x4 5 [3 4] 10.000000] (REPLY)
s 1.041093518 _2_ RTR  --- 0 cbr 1020 [0 0 0 0] [energy 99.993275 ei 0.000 es 0.000 et 0.001 er 0.005] ------- [2:0 3:0 30 4] [0] 0 0
N -t 1.041613 -n 4 -e 99.990942
N -t 1.041614 -n 9 -e 99.991437
N -t 1.041614 -n 1 -e 99.990203
N -t 1.041614 -n 7 -e 99.990203
N -t 1.041614 -n 5 -e 99.991437
N -t 1.041614 -n 8 -e 99.991437
N -t 1.041975 -n 2 -e 99.992973
N -t 1.041976 -n 9 -e 99.991346
N -t 1.041976 -n 1 -e 99.990112
N -t 1.041976 -n 7 -e 99.990112
N -t 1.041976 -n 5 -e 99.991346
N -t 1.041976 -n 8 -e 99.991346
N -t 1.041976 -n 6 -e 99.990966
N -t 1.042290 -n 4 -e 99.988173
N -t 1.042290 -n 9 -e 99.988758
N -t 1.042291 -n 1 -e 99.987525
N -t 1.042291 -n 7 -e 99.987525
N -t 1.042291 -n 5 -e 99.988758
N -t 1.042291 -n 8 -e 99.988758
N -t 1.050924 -n 2 -e 99.987707
N -t 1.050924 -n 9 -e 99.988667
N -t 1.050925 -n 1 -e 99.987434
N -t 1.050925 -n 7 -e 99.987434
N -t 1.050925 -n 5 -e 99.988667
N -t 1.050925 -n 8 -e 99.988667
N -t 1.050925 -n 6 -e 99.990875
r 1.050938927 _4_ RTR  --- 0 cbr 1020 [13a 4 2 800] [energy 99.987990 ei 0.000 es 0.000 et 0.003 er 0.009] ------- [2:0 3:0 30 4] [0] 1 0
f 1.050938927 _4_ RTR  --- 0 cbr 1020 [13a 4 2 800] [energy 99.987990 ei 0.000 es 0.000 et 0.003 er 0.009] ------- [2:0 3:0 29 1] [0] 1 0
N -t 1.051398 -n 2 -e 99.987602
N -t 1.051398 -n 9 -e 99.988562
N -t 1.051399 -n 1 -e 99.987328
N -t 1.051399 -n 7 -e 99.987328
N -t 1.051399 -n 5 -e 99.988562
N -t 1.051399 -n 8 -e 99.988562
N -t 1.051399 -n 6 -e 99.990770
N -t 1.051761 -n 5 -e 99.988470
N -t 1.051761 -n 9 -e 99.988470
N -t 1.051761 -n 7 -e 99.987237
N -t 1.051762 -n 4 -e 99.987688
N -t 1.051762 -n 8 -e 99.988470
N -t 1.051762 -n 2 -e 99.987510
N -t 1.051762 -n 6 -e 99.990678
N -t 1.051762 -n 3 -e 99.993203
N -t 1.052076 -n 2 -e 99.984923
N -t 1.052076 -n 9 -e 99.985883
N -t 1.052076 -n 1 -e 99.984558
N -t 1.052076 -n 7 -e 99.984650
N -t 1.052077 -n 5 -e 99.985883
N -t 1.052077 -n 8 -e 99.985883
N -t 1.052077 -n 6 -e 99.988091
N -t 1.060711 -n 5 -e 99.985792
N -t 1.060711 -n 9 -e 99.985792
N -t 1.060711 -n 7 -e 99.984558
N -t 1.060711 -n 4 -e 99.982422
N -t 1.060711 -n 8 -e 99.985792
N -t 1.060711 -n 2 -e 99.984832
N -t 1.060711 -n 6 -e 99.988000
N -t 1.060712 -n 3 -e 99.993112
r 1.060725353 _1_ RTR  --- 0 cbr 1020 [13a 1 4 800] [energy 99.984376 ei 0.000 es 0.000 et 0.003 er 0.012] ------- [2:0 3:0 29 1] [0] 2 0
f 1.060725353 _1_ RTR  --- 0 cbr 1020 [13a 1 4 800] [energy 99.984376 ei 0.000 es 0.000 et 0.003 er 0.012] ------- [2:0 3:0 28 7] [0] 2 0
N -t 1.061065 -n 5 -e 99.985686
N -t 1.061065 -n 9 -e 99.985686
N -t 1.061065 -n 7 -e 99.984453
N -t 1.061065 -n 4 -e 99.982317
N -t 1.061065 -n 8 -e 99.985686
N -t 1.061065 -n 2 -e 99.984726
N -t 1.061065 -n 6 -e 99.987894
N -t 1.061066 -n 3 -e 99.993006
N -t 1.061427 -n 5 -e 99.985595
N -t 1.061427 -n 9 -e 99.985595
N -t 1.061428 -n 8 -e 99.985595
N -t 1.061428 -n 6 -e 99.987803
N -t 1.061428 -n 1 -e 99.984074
N -t 1.061428 -n 4 -e 99.982226
N -t 1.061428 -n 3 -e 99.992915
N -t 1.061428 -n 2 -e 99.984635
N -t 1.061742 -n 5 -e 99.983008
N -t 1.061742 -n 9 -e 99.983008
N -t 1.061742 -n 7 -e 99.981683
N -t 1.061743 -n 4 -e 99.979638
N -t 1.061743 -n 8 -e 99.983008
N -t 1.061743 -n 2 -e 99.982048
N -t 1.061743 -n 6 -e 99.985216
N -t 1.061743 -n 3 -e 99.990328
N -t 1.070377 -n 5 -e 99.982917
N -t 1.070377 -n 9 -e 99.982917
N -t 1.070377 -n 8 -e 99.982917
N -t 1.070377 -n 6 -e 99.985125
N -t 1.070377 -n 1 -e 99.978808
N -t 1.070377 -n 4 -e 99.979547
N -t 1.070377 -n 3 -e 99.990237
N -t 1.070378 -n 2 -e 99.981957
r 1.070391374 _7_ RTR  --- 0 cbr 1020 [13a 7 1 800] [energy 99.981501 ei 0.000 es 0.000 et 0.003 er 0.015] ------- [2:0 3:0 28 7] [0] 3 0
f 1.070391374 _7_ RTR  --- 0 cbr 1020 [13a 7 1 800] [energy 99.981501 ei 0.000 es 0.000 et 0.003 er 0.015] ------- [2:0 3:0 27 6] [0] 3 0
N -t 1.071051 -n 5 -e 99.982811
N -t 1.071051 -n 9 -e 99.982811
N -t 1.071051 -n 8 -e 99.982811
N -t 1.071051 -n 6 -e 99.985019
N -t 1.071051 -n 1 -e 99.978702
N -t 1.071051 -n 4 -e 99.979442
N -t 1.071051 -n 3 -e 99.990131
N -t 1.071052 -n 2 -e 99.981851
N -t 1.071413 -n 8 -e 99.982720
N -t 1.071413 -n 7 -e 99.981198
N -t 1.071413 -n 3 -e 99.990040
N -t 1.071414 -n 5 -e 99.982720
N -t 1.071414 -n 9 -e 99.982720
N -t 1.071414 -n 1 -e 99.978611
N -t 1.071414 -n 4 -e 99.979350
N -t 1.071414 -n 0 -e 99.997427
N -t 1.071728 -n 5 -e 99.980133
N -t 1.071728 -n 9 -e 99.980133
N -t 1.071728 -n 8 -e 99.980133
N -t 1.071728 -n 6 -e 99.982250
N -t 1.071728 -n 1 -e 99.976024
N -t 1.071728 -n 4 -e 99.976763
N -t 1.071729 -n 3 -e 99.987453
N -t 1.071729 -n 2 -e 99.979264
N -t 1.080362 -n 8 -e 99.980042
N -t 1.080363 -n 7 -e 99.975933
N -t 1.080363 -n 3 -e 99.987362
N -t 1.080363 -n 5 -e 99.980042
N -t 1.080363 -n 9 -e 99.980042
N -t 1.080363 -n 1 -e 99.975933
N -t 1.080363 -n 4 -e 99.976672
N -t 1.080364 -n 0 -e 99.997336
r 1.080376973 _6_ RTR  --- 0 cbr 1020 [13a 6 7 800] [energy 99.982067 ei 0.000 es 0.000 et 0.003 er 0.015] ------- [2:0 3:0 27 6] [0] 4 0
f 1.080376973 _6_ RTR  --- 0 cbr 1020 [13a 6 7 800] [energy 99.982067 ei 0.000 es 0.000 et 0.003 er 0.015] ------- [2:0 3:0 26 3] [0] 4 0
N -t 1.080936 -n 8 -e 99.979936
N -t 1.080937 -n 7 -e 99.975827
N -t 1.080937 -n 3 -e 99.987256
N -t 1.080937 -n 5 -e 99.979936
N -t 1.080937 -n 9 -e 99.979936
N -t 1.080937 -n 1 -e 99.975827
N -t 1.080937 -n 4 -e 99.976566
N -t 1.080938 -n 0 -e 99.997230
N -t 1.081299 -n 6 -e 99.981765
N -t 1.081299 -n 8 -e 99.979845
N -t 1.081300 -n 0 -e 99.997139
N -t 1.081300 -n 7 -e 99.975736
N -t 1.081300 -n 5 -e 99.979845
N -t 1.081300 -n 9 -e 99.979845
N -t 1.081300 -n 1 -e 99.975736
N -t 1.081614 -n 8 -e 99.977258
N -t 1.081614 -n 7 -e 99.973149
N -t 1.081614 -n 3 -e 99.984486
N -t 1.081614 -n 5 -e 99.977258
N -t 1.081614 -n 9 -e 99.977258
N -t 1.081614 -n 1 -e 99.973149
N -t 1.081615 -n 4 -e 99.973979
N -t 1.081615 -n 0 -e 99.994552
N -t 1.090248 -n 6 -e 99.976499
N -t 1.090249 -n 8 -e 99.977166
N -t 1.090249 -n 0 -e 99.994461
N -t 1.090249 -n 7 -e 99.973058
N -t 1.090249 -n 5 -e 99.977166
N -t 1.090249 -n 9 -e 99.977166
N -t 1.090249 -n 1 -e 99.973058
r 1.090262735 _3_ AGT  --- 0 cbr 1020 [13a 3 6 800] [energy 99.984304 ei 0.000 es 0.000 et 0.002 er 0.014] ------- [2:0 3:0 26 3] [0] 5 0
s 1.100000000 _2_ AGT  --- 1 cbr 1000 [0 0 0 0] [energy 99.979264 ei 0.000 es 0.000 et 0.007 er 0.014] ------- [2:0 3:0 32 0] [1] 0 0
r 1.100000000 _2_ RTR  --- 1 cbr 1000 [0 0 0 0] [energy 99.979264 ei 0.000 es 0.000 et 0.007 er 0.014] ------- [2:0 3:0 32 0] [1] 0 0
s 1.100000000 _2_ RTR  --- 1 cbr 1020 [0 0 0 0] [energy 99.979264 ei 0.000 es 0.000 et 0.007 er 0.014] ------- [2:0 3:0 30 4] [1] 0 0
N -t 1.100075 -n 4 -e 99.973874
N -t 1.100076 -n 9 -e 99.977061
N -t 1.100076 -n 1 -e 99.972952
N -t 1.100076 -n 7 -e 99.972952
N -t 1.100076 -n 5 -e 99.977061
N -t 1.100077 -n 8 -e 99.977061
N -t 1.100438 -n 2 -e 99.978962
N -t 1.100438 -n 9 -e 99.976970
N -t 1.100438 -n 1 -e 99.972861
N -t 1.100438 -n 7 -e 99.972861
N -t 1.100438 -n 5 -e 99.976970
N -t 1.100439 -n 8 -e 99.976970
N -t 1.100439 -n 6 -e 99.976408
N -t 1.100752 -n 4 -e 99.971104
N -t 1.100753 -n 9 -e 99.974382
N -t 1.100753 -n 1 -e 99.970274
N -t 1.100753 -n 7 -e 99.970274
N -t 1.100753 -n 5 -e 99.974382
N -t 1.100754 -n 8 -e 99.974382
N -t 1.109387 -n 2 -e 99.973696
N -t 1.109387 -n 9 -e 99.974291
N -t 1.109387 -n 1 -e 99.970182
N -t 1.109387 -n 7 -e 99.970182
N -t 1.109387 -n 5 -e 99.974291
N -t 1.109388 -n 8 -e 99.974291
N -t 1.109388 -n 6 -e 99.976317
r 1.109401409 _4_ RTR  --- 1 cbr 1020 [13a 4 2 800] [energy 99.970922 ei 0.000 es 0.000 et 0.009 er 0.020] ------- [2:0 3:0 30 4] [1] 1 0
f 1.109401409 _4_ RTR  --- 1 cbr 1020 [13a 4 2 800] [energy 99.970922 ei 0.000 es 0.000 et 0.009 er 0.020] ------- [2:0 3:0 29 1] [1] 1 0
N -t 1.109981 -n 2 -e 99.973590
N -t 1.109981 -n 9 -e 99.974186
N -t 1.109981 -n 1 -e 99.970077
N -t 1.109981 -n 7 -e 99.970077
N -t 1.109981 -n 5 -e 99.974186
N -t 1.109982 -n 8 -e 99.974186
N -t 1.109982 -n 6 -e 99.976211