+ 0.1 0 4 ping 50000 ------- 0 0.0 5.0 -1 0
- 0.1 0 4 ping 50000 ------- 0 0.0 5.0 -1 0
+ 0.1 2 4 ping 30000 ------- 0 2.0 3.0 -1 1
- 0.1 2 4 ping 30000 ------- 0 2.0 3.0 -1 1
r 0.10112 2 4 ping 30000 ------- 0 2.0 3.0 -1 1
+ 0.10112 4 3 ping 30000 ------- 0 2.0 3.0 -1 1
- 0.10112 4 3 ping 30000 ------- 0 2.0 3.0 -1 1
r 0.101398 0 4 ping 50000 ------- 0 0.0 5.0 -1 0
+ 0.101398 4 5 ping 50000 ------- 0 0.0 5.0 -1 0
- 0.101398 4 5 ping 50000 ------- 0 0.0 5.0 -1 0
r 0.10332 4 3 ping 30000 ------- 0 2.0 3.0 -1 1
+ 0.10332 3 4 ping 64 ------- 0 3.0 2.0 -1 2
- 0.10332 3 4 ping 64 ------- 0 3.0 2.0 -1 2
r 0.104323 3 4 ping 64 ------- 0 3.0 2.0 -1 2
+ 0.104323 4 2 ping 64 ------- 0 3.0 2.0 -1 2
- 0.104323 4 2 ping 64 ------- 0 3.0 2.0 -1 2
r 0.105323 4 2 ping 64 ------- 0 3.0 2.0 -1 2
+ 0.2 0 4 ping 50000 ------- 0 0.0 5.0 -1 3
- 0.2 0 4 ping 50000 ------- 0 0.0 5.0 -1 3
+ 0.2 2 4 ping 30000 ------- 0 2.0 3.0 -1 4
- 0.2 2 4 ping 30000 ------- 0 2.0 3.0 -1 4
r 0.20112 2 4 ping 30000 ------- 0 2.0 3.0 -1 4
+ 0.20112 4 3 ping 30000 ------- 0 2.0 3.0 -1 4
- 0.20112 4 3 ping 30000 ------- 0 2.0 3.0 -1 4
r 0.201398 0 4 ping 50000 ------- 0 0.0 5.0 -1 3
+ 0.201398 4 5 ping 50000 ------- 0 0.0 5.0 -1 3
r 0.20332 4 3 ping 30000 ------- 0 2.0 3.0 -1 4
+ 0.20332 3 4 ping 64 ------- 0 3.0 2.0 -1 5
- 0.20332 3 4 ping 64 ------- 0 3.0 2.0 -1 5
r 0.204323 3 4 ping 64 ------- 0 3.0 2.0 -1 5
+ 0.204323 4 2 ping 64 ------- 0 3.0 2.0 -1 5
- 0.204323 4 2 ping 64 ------- 0 3.0 2.0 -1 5
r 0.205323 4 2 ping 64 ------- 0 3.0 2.0 -1 5
+ 0.3 0 4 ping 50000 ------- 0 0.0 5.0 -1 6
- 0.3 0 4 ping 50000 ------- 0 0.0 5.0 -1 6
+ 0.3 2 4 ping 30000 ------- 0 2.0 3.0 -1 7
- 0.3 2 4 ping 30000 ------- 0 2.0 3.0 -1 7
r 0.30112 2 4 ping 30000 ------- 0 2.0 3.0 -1 7
+ 0.30112 4 3 ping 30000 ------- 0 2.0 3.0 -1 7
- 0.30112 4 3 ping 30000 ------- 0 2.0 3.0 -1 7
r 0.301398 0 4 ping 50000 ------- 0 0.0 5.0 -1 6
+ 0.301398 4 5 ping 50000 ------- 0 0.0 5.0 -1 6
r 0.30332 4 3 ping 30000 ------- 0 2.0 3.0 -1 7
+ 0.30332 3 4 ping 64 ------- 0 3.0 2.0 -1 8
- 0.30332 3 4 ping 64 ------- 0 3.0 2.0 -1 8
r 0.304323 3 4 ping 64 ------- 0 3.0 2.0 -1 8
+ 0.304323 4 2 ping 64 ------- 0 3.0 2.0 -1 8
- 0.304323 4 2 ping 64 ------- 0 3.0 2.0 -1 8
r 0.305323 4 2 ping 64 ------- 0 3.0 2.0 -1 8
+ 0.4 0 4 ping 50000 ------- 0 0.0 5.0 -1 9
- 0.4 0 4 ping 50000 ------- 0 0.0 5.0 -1 9
+ 0.4 2 4 ping 30000 ------- 0 2.0 3.0 -1 10
- 0.4 2 4 ping 30000 ------- 0 2.0 3.0 -1 10
r 0.40112 2 4 ping 30000 ------- 0 2.0 3.0 -1 10
+ 0.40112 4 3 ping 30000 ------- 0 2.0 3.0 -1 10
- 0.40112 4 3 ping 30000 ------- 0 2.0 3.0 -1 10
r 0.401398 0 4 ping 50000 ------- 0 0.0 5.0 -1 9
+ 0.401398 4 5 ping 50000 ------- 0 0.0 5.0 -1 9
r 0.40332 4 3 ping 30000 ------- 0 2.0 3.0 -1 10
+ 0.40332 3 4 ping 64 ------- 0 3.0 2.0 -1 11
- 0.40332 3 4 ping 64 ------- 0 3.0 2.0 -1 11
r 0.404323 3 4 ping 64 ------- 0 3.0 2.0 -1 11
+ 0.404323 4 2 ping 64 ------- 0 3.0 2.0 -1 11
- 0.404323 4 2 ping 64 ------- 0 3.0 2.0 -1 11
r 0.405323 4 2 ping 64 ------- 0 3.0 2.0 -1 11
+ 0.5 2 4 ping 30000 ------- 0 2.0 3.0 -1 12
- 0.5 2 4 ping 30000 ------- 0 2.0 3.0 -1 12
r 0.50112 2 4 ping 30000 ------- 0 2.0 3.0 -1 12
+ 0.50112 4 3 ping 30000 ------- 0 2.0 3.0 -1 12
- 0.50112 4 3 ping 30000 ------- 0 2.0 3.0 -1 12
- 0.501398 4 5 ping 50000 ------- 0 0.0 5.0 -1 3
r 0.502398 4 5 ping 50000 ------- 0 0.0 5.0 -1 0
+ 0.502398 5 4 ping 64 ------- 0 5.0 0.0 -1 13
- 0.502398 5 4 ping 64 ------- 0 5.0 0.0 -1 13
r 0.50332 4 3 ping 30000 ------- 0 2.0 3.0 -1 12
+ 0.50332 3 4 ping 64 ------- 0 3.0 2.0 -1 14
- 0.50332 3 4 ping 64 ------- 0 3.0 2.0 -1 14
r 0.50391 5 4 ping 64 ------- 0 5.0 0.0 -1 13
+ 0.50391 4 0 ping 64 ------- 0 5.0 0.0 -1 13
- 0.50391 4 0 ping 64 ------- 0 5.0 0.0 -1 13
r 0.504323 3 4 ping 64 ------- 0 3.0 2.0 -1 14
+ 0.504323 4 2 ping 64 ------- 0 3.0 2.0 -1 14
- 0.504323 4 2 ping 64 ------- 0 3.0 2.0 -1 14
r 0.504911 4 0 ping 64 ------- 0 5.0 0.0 -1 13
r 0.505323 4 2 ping 64 ------- 0 3.0 2.0 -1 14
+ 0.6 2 4 ping 30000 ------- 0 2.0 3.0 -1 15
- 0.6 2 4 ping 30000 ------- 0 2.0 3.0 -1 15
r 0.60112 2 4 ping 30000 ------- 0 2.0 3.0 -1 15
+ 0.60112 4 3 ping 30000 ------- 0 2.0 3.0 -1 15
- 0.60112 4 3 ping 30000 ------- 0 2.0 3.0 -1 15
r 0.60332 4 3 ping 30000 ------- 0 2.0 3.0 -1 15
+ 0.60332 3 4 ping 64 ------- 0 3.0 2.0 -1 16
- 0.60332 3 4 ping 64 ------- 0 3.0 2.0 -1 16
r 0.604323 3 4 ping 64 ------- 0 3.0 2.0 -1 16
+ 0.604323 4 2 ping 64 ------- 0 3.0 2.0 -1 16
- 0.604323 4 2 ping 64 ------- 0 3.0 2.0 -1 16
r 0.605323 4 2 ping 64 ------- 0 3.0 2.0 -1 16
+ 0.7 2 4 ping 30000 ------- 0 2.0 3.0 -1 17
- 0.7 2 4 ping 30000 ------- 0 2.0 3.0 -1 17
r 0.70112 2 4 ping 30000 ------- 0 2.0 3.0 -1 17
+ 0.70112 4 3 ping 30000 ------- 0 2.0 3.0 -1 17
- 0.70112 4 3 ping 30000 ------- 0 2.0 3.0 -1 17
r 0.70332 4 3 ping 30000 ------- 0 2.0 3.0 -1 17
+ 0.70332 3 4 ping 64 ------- 0 3.0 2.0 -1 18
- 0.70332 3 4 ping 64 ------- 0 3.0 2.0 -1 18
r 0.704323 3 4 ping 64 ------- 0 3.0 2.0 -1 18
+ 0.704323 4 2 ping 64 ------- 0 3.0 2.0 -1 18
- 0.704323 4 2 ping 64 ------- 0 3.0 2.0 -1 18
r 0.705323 4 2 ping 64 ------- 0 3.0 2.0 -1 18
+ 0.8 2 4 ping 30000 ------- 0 2.0 3.0 -1 19
- 0.8 2 4 ping 30000 ------- 0 2.0 3.0 -1 19
r 0.80112 2 4 ping 30000 ------- 0 2.0 3.0 -1 19
+ 0.80112 4 3 ping 30000 ------- 0 2.0 3.0 -1 19
- 0.80112 4 3 ping 30000 ------- 0 2.0 3.0 -1 19
r 0.80332 4 3 ping 30000 ------- 0 2.0 3.0 -1 19
+ 0.80332 3 4 ping 64 ------- 0 3.0 2.0 -1 20
- 0.80332 3 4 ping 64 ------- 0 3.0 2.0 -1 20
r 0.804323 3 4 ping 64 ------- 0 3.0 2.0 -1 20
+ 0.804323 4 2 ping 64 ------- 0 3.0 2.0 -1 20
- 0.804323 4 2 ping 64 ------- 0 3.0 2.0 -1 20
r 0.805323 4 2 ping 64 ------- 0 3.0 2.0 -1 20
+ 0.9 2 4 ping 30000 ------- 0 2.0 3.0 -1 21
- 0.9 2 4 ping 30000 ------- 0 2.0 3.0 -1 21
r 0.90112 2 4 ping 30000 ------- 0 2.0 3.0 -1 21
+ 0.90112 4 3 ping 30000 ------- 0 2.0 3.0 -1 21
- 0.90112 4 3 ping 30000 ------- 0 2.0 3.0 -1 21
- 0.901398 4 5 ping 50000 ------- 0 0.0 5.0 -1 6
r 0.902398 4 5 ping 50000 ------- 0 0.0 5.0 -1 3
+ 0.902398 5 4 ping 64 ------- 0 5.0 0.0 -1 22
- 0.902398 5 4 ping 64 ------- 0 5.0 0.0 -1 22
r 0.90332 4 3 ping 30000 ------- 0 2.0 3.0 -1 21
+ 0.90332 3 4 ping 64 ------- 0 3.0 2.0 -1 23
- 0.90332 3 4 ping 64 ------- 0 3.0 2.0 -1 23
r 0.90391 5 4 ping 64 ------- 0 5.0 0.0 -1 22
+ 0.90391 4 0 ping 64 ------- 0 5.0 0.0 -1 22
- 0.90391 4 0 ping 64 ------- 0 5.0 0.0 -1 22
r 0.904323 3 4 ping 64 ------- 0 3.0 2.0 -1 23
+ 0.904323 4 2 ping 64 ------- 0 3.0 2.0 -1 23
- 0.904323 4 2 ping 64 ------- 0 3.0 2.0 -1 23
r 0.904911 4 0 ping 64 ------- 0 5.0 0.0 -1 22
r 0.905323 4 2 ping 64 ------- 0 3.0 2.0 -1 23
+ 1 2 4 ping 30000 ------- 0 2.0 3.0 -1 24
- 1 2 4 ping 30000 ------- 0 2.0 3.0 -1 24
r 1.00112 2 4 ping 30000 ------- 0 2.0 3.0 -1 24
+ 1.00112 4 3 ping 30000 ------- 0 2.0 3.0 -1 24
- 1.00112 4 3 ping 30000 ------- 0 2.0 3.0 -1 24
r 1.00332 4 3 ping 30000 ------- 0 2.0 3.0 -1 24
+ 1.00332 3 4 ping 64 ------- 0 3.0 2.0 -1 25
- 1.00332 3 4 ping 64 ------- 0 3.0 2.0 -1 25
r 1.004323 3 4 ping 64 ------- 0 3.0 2.0 -1 25
+ 1.004323 4 2 ping 64 ------- 0 3.0 2.0 -1 25
- 1.004323 4 2 ping 64 ------- 0 3.0 2.0 -1 25
r 1.005323 4 2 ping 64 ------- 0 3.0 2.0 -1 25
+ 1.1 2 4 ping 30000 ------- 0 2.0 3.0 -1 26
- 1.1 2 4 ping 30000 ------- 0 2.0 3.0 -1 26
r 1.10112 2 4 ping 30000 ------- 0 2.0 3.0 -1 26
+ 1.10112 4 3 ping 30000 ------- 0 2.0 3.0 -1 26
- 1.10112 4 3 ping 30000 ------- 0 2.0 3.0 -1 26
r 1.10332 4 3 ping 30000 ------- 0 2.0 3.0 -1 26
+ 1.10332 3 4 ping 64 ------- 0 3.0 2.0 -1 27
- 1.10332 3 4 ping 64 ------- 0 3.0 2.0 -1 27
r 1.104323 3 4 ping 64 ------- 0 3.0 2.0 -1 27
+ 1.104323 4 2 ping 64 ------- 0 3.0 2.0 -1 27
- 1.104323 4 2 ping 64 ------- 0 3.0 2.0 -1 27
r 1.105323 4 2 ping 64 ------- 0 3.0 2.0 -1 27
+ 1.2 0 4 ping 50000 ------- 0 0.0 5.0 -1 28
- 1.2 0 4 ping 50000 ------- 0 0.0 5.0 -1 28
+ 1.2 2 4 ping 30000 ------- 0 2.0 3.0 -1 29
- 1.2 2 4 ping 30000 ------- 0 2.0 3.0 -1 29
r 1.20112 2 4 ping 30000 ------- 0 2.0 3.0 -1 29
+ 1.20112 4 3 ping 30000 ------- 0 2.0 3.0 -1 29
- 1.20112 4 3 ping 30000 ------- 0 2.0 3.0 -1 29
r 1.201398 0 4 ping 50000 ------- 0 0.0 5.0 -1 28
+ 1.201398 4 5 ping 50000 ------- 0 0.0 5.0 -1 28
r 1.20332 4 3 ping 30000 ------- 0 2.0 3.0 -1 29
+ 1.20332 3 4 ping 64 ------- 0 3.0 2.0 -1 30
- 1.20332 3 4 ping 64 ------- 0 3.0 2.0 -1 30
r 1.204323 3 4 ping 64 ------- 0 3.0 2.0 -1 30
+ 1.204323 4 2 ping 64 ------- 0 3.0 2.0 -1 30
- 1.204323 4 2 ping 64 ------- 0 3.0 2.0 -1 30
r 1.205323 4 2 ping 64 ------- 0 3.0 2.0 -1 30
+ 1.3 0 4 ping 50000 ------- 0 0.0 5.0 -1 31
- 1.3 0 4 ping 50000 ------- 0 0.0 5.0 -1 31
+ 1.3 2 4 ping 30000 ------- 0 2.0 3.0 -1 32
- 1.3 2 4 ping 30000 ------- 0 2.0 3.0 -1 32
r 1.30112 2 4 ping 30000 ------- 0 2.0 3.0 -1 32
+ 1.30112 4 3 ping 30000 ------- 0 2.0 3.0 -1 32
- 1.30112 4 3 ping 30000 ------- 0 2.0 3.0 -1 32
- 1.301398 4 5 ping 50000 ------- 0 0.0 5.0 -1 9
r 1.301398 0 4 ping 50000 ------- 0 0.0 5.0 -1 31
+ 1.301398 4 5 ping 50000 ------- 0 0.0 5.0 -1 31
r 1.302398 4 5 ping 50000 ------- 0 0.0 5.0 -1 6
+ 1.302398 5 4 ping 64 ------- 0 5.0 0.0 -1 33
- 1.302398 5 4 ping 64 ------- 0 5.0 0.0 -1 33
r 1.30332 4 3 ping 30000 ------- 0 2.0 3.0 -1 32
+ 1.30332 3 4 ping 64 ------- 0 3.0 2.0 -1 34
- 1.30332 3 4 ping 64 ------- 0 3.0 2.0 -1 34
r 1.30391 5 4 ping 64 ------- 0 5.0 0.0 -1 33
+ 1.30391 4 0 ping 64 ------- 0 5.0 0.0 -1 33
- 1.30391 4 0 ping 64 ------- 0 5.0 0.0 -1 33
r 1.304323 3 4 ping 64 ------- 0 3.0 2.0 -1 34
+ 1.304323 4 2 ping 64 ------- 0 3.0 2.0 -1 34
- 1.304323 4 2 ping 64 ------- 0 3.0 2.0 -1 34
r 1.304911 4 0 ping 64 ------- 0 5.0 0.0 -1 33
r 1.305323 4 2 ping 64 ------- 0 3.0 2.0 -1 34
+ 1.4 0 4 ping 50000 ------- 0 0.0 5.0 -1 35
- 1.4 0 4 ping 50000 ------- 0 0.0 5.0 -1 35
+ 1.4 2 4 ping 30000 ------- 0 2.0 3.0 -1 36
- 1.4 2 4 ping 30000 ------- 0 2.0 3.0 -1 36
r 1.40112 2 4 ping 30000 ------- 0 2.0 3.0 -1 36
+ 1.40112 4 3 ping 30000 ------- 0 2.0 3.0 -1 36
- 1.40112 4 3 ping 30000 ------- 0 2.0 3.0 -1 36
r 1.401398 0 4 ping 50000 ------- 0 0.0 5.0 -1 35
+ 1.401398 4 5 ping 50000 ------- 0 0.0 5.0 -1 35
r 1.40332 4 3 ping 30000 ------- 0 2.0 3.0 -1 36
+ 1.40332 3 4 ping 64 ------- 0 3.0 2.0 -1 37
- 1.40332 3 4 ping 64 ------- 0 3.0 2.0 -1 37
r 1.404323 3 4 ping 64 ------- 0 3.0 2.0 -1 37
+ 1.404323 4 2 ping 64 ------- 0 3.0 2.0 -1 37
- 1.404323 4 2 ping 64 ------- 0 3.0 2.0 -1 37
r 1.405323 4 2 ping 64 ------- 0 3.0 2.0 -1 37
+ 1.5 0 4 ping 50000 ------- 0 0.0 5.0 -1 38
- 1.5 0 4 ping 50000 ------- 0 0.0 5.0 -1 38
+ 1.5 2 4 ping 30000 ------- 0 2.0 3.0 -1 39
- 1.5 2 4 ping 30000 ------- 0 2.0 3.0 -1 39
r 1.50112 2 4 ping 30000 ------- 0 2.0 3.0 -1 39
+ 1.50112 4 3 ping 30000 ------- 0 2.0 3.0 -1 39
- 1.50112 4 3 ping 30000 ------- 0 2.0 3.0 -1 39
r 1.501398 0 4 ping 50000 ------- 0 0.0 5.0 -1 38
+ 1.501398 4 5 ping 50000 ------- 0 0.0 5.0 -1 38
r 1.50332 4 3 ping 30000 ------- 0 2.0 3.0 -1 39
+ 1.50332 3 4 ping 64 ------- 0 3.0 2.0 -1 40
- 1.50332 3 4 ping 64 ------- 0 3.0 2.0 -1 40
r 1.504323 3 4 ping 64 ------- 0 3.0 2.0 -1 40
+ 1.504323 4 2 ping 64 ------- 0 3.0 2.0 -1 40
- 1.504323 4 2 ping 64 ------- 0 3.0 2.0 -1 40
r 1.505323 4 2 ping 64 ------- 0 3.0 2.0 -1 40
+ 1.6 0 4 ping 50000 ------- 0 0.0 5.0 -1 41
- 1.6 0 4 ping 50000 ------- 0 0.0 5.0 -1 41
+ 1.6 2 4 ping 30000 ------- 0 2.0 3.0 -1 42
- 1.6 2 4 ping 30000 ------- 0 2.0 3.0 -1 42
r 1.60112 2 4 ping 30000 ------- 0 2.0 3.0 -1 42
+ 1.60112 4 3 ping 30000 ------- 0 2.0 3.0 -1 42
- 1.60112 4 3 ping 30000 ------- 0 2.0 3.0 -1 42
r 1.601398 0 4 ping 50000 ------- 0 0.0 5.0 -1 41
+ 1.601398 4 5 ping 50000 ------- 0 0.0 5.0 -1 41
d 1.601398 4 5 ping 50000 ------- 0 0.0 5.0 -1 41
r 1.60332 4 3 ping 30000 ------- 0 2.0 3.0 -1 42
+ 1.60332 3 4 ping 64 ------- 0 3.0 2.0 -1 43
- 1.60332 3 4 ping 64 ------- 0 3.0 2.0 -1 43
r 1.604323 3 4 ping 64 ------- 0 3.0 2.0 -1 43
+ 1.604323 4 2 ping 64 ------- 0 3.0 2.0 -1 43
- 1.604323 4 2 ping 64 ------- 0 3.0 2.0 -1 43
r 1.605323 4 2 ping 64 ------- 0 3.0 2.0 -1 43
+ 1.7 0 4 ping 50000 ------- 0 0.0 5.0 -1 44
- 1.7 0 4 ping 50000 ------- 0 0.0 5.0 -1 44
+ 1.7 2 4 ping 30000 ------- 0 2.0 3.0 -1 45
- 1.7 2 4 ping 30000 ------- 0 2.0 3.0 -1 45
r 1.70112 2 4 ping 30000 ------- 0 2.0 3.0 -1 45
+ 1.70112 4 3 ping 30000 ------- 0 2.0 3.0 -1 45
- 1.70112 4 3 ping 30000 ------- 0 2.0 3.0 -1 45
- 1.701398 4 5 ping 50000 ------- 0 0.0 5.0 -1 28
r 1.701398 0 4 ping 50000 ------- 0 0.0 5.0 -1 44
+ 1.701398 4 5 ping 50000 ------- 0 0.0 5.0 -1 44
r 1.702398 4 5 ping 50000 ------- 0 0.0 5.0 -1 9
+ 1.702398 5 4 ping 64 ------- 0 5.0 0.0 -1 46
- 1.702398 5 4 ping 64 ------- 0 5.0 0.0 -1 46
r 1.70332 4 3 ping 30000 ------- 0 2.0 3.0 -1 45
+ 1.70332 3 4 ping 64 ------- 0 3.0 2.0 -1 47
- 1.70332 3 4 ping 64 ------- 0 3.0 2.0 -1 47
r 1.70391 5 4 ping 64 ------- 0 5.0 0.0 -1 46
+ 1.70391 4 0 ping 64 ------- 0 5.0 0.0 -1 46
- 1.70391 4 0 ping 64 ------- 0 5.0 0.0 -1 46
r 1.704323 3 4 ping 64 ------- 0 3.0 2.0 -1 47
+ 1.704323 4 2 ping 64 ------- 0 3.0 2.0 -1 47
- 1.704323 4 2 ping 64 ------- 0 3.0 2.0 -1 47
r 1.704911 4 0 ping 64 ------- 0 5.0 0.0 -1 46
r 1.705323 4 2 ping 64 ------- 0 3.0 2.0 -1 47
+ 1.8 0 4 ping 50000 ------- 0 0.0 5.0 -1 48
- 1.8 0 4 ping 50000 ------- 0 0.0 5.0 -1 48
+ 1.8 2 4 ping 30000 ------- 0 2.0 3.0 -1 49
- 1.8 2 4 ping 30000 ------- 0 2.0 3.0 -1 49
r 1.80112 2 4 ping 30000 ------- 0 2.0 3.0 -1 49
+ 1.80112 4 3 ping 30000 ------- 0 2.0 3.0 -1 49
- 1.80112 4 3 ping 30000 ------- 0 2.0 3.0 -1 49
r 1.801398 0 4 ping 50000 ------- 0 0.0 5.0 -1 48
+ 1.801398 4 5 ping 50000 ------- 0 0.0 5.0 -1 48
d 1.801398 4 5 ping 50000 ------- 0 0.0 5.0 -1 48
r 1.80332 4 3 ping 30000 ------- 0 2.0 3.0 -1 49
+ 1.80332 3 4 ping 64 ------- 0 3.0 2.0 -1 50
- 1.80332 3 4 ping 64 ------- 0 3.0 2.0 -1 50
r 1.804323 3 4 ping 64 ------- 0 3.0 2.0 -1 50
+ 1.804323 4 2 ping 64 ------- 0 3.0 2.0 -1 50
- 1.804323 4 2 ping 64 ------- 0 3.0 2.0 -1 50
r 1.805323 4 2 ping 64 ------- 0 3.0 2.0 -1 50
+ 1.9 0 4 ping 50000 ------- 0 0.0 5.0 -1 51
- 1.9 0 4 ping 50000 ------- 0 0.0 5.0 -1 51
+ 1.9 2 4 ping 30000 ------- 0 2.0 3.0 -1 52
- 1.9 2 4 ping 30000 ------- 0 2.0 3.0 -1 52
r 1.90112 2 4 ping 30000 ------- 0 2.0 3.0 -1 52
+ 1.90112 4 3 ping 30000 ------- 0 2.0 3.0 -1 52
- 1.90112 4 3 ping 30000 ------- 0 2.0 3.0 -1 52
r 1.901398 0 4 ping 50000 ------- 0 0.0 5.0 -1 51
+ 1.901398 4 5 ping 50000 ------- 0 0.0 5.0 -1 51
d 1.901398 4 5 ping 50000 ------- 0 0.0 5.0 -1 51
r 1.90332 4 3 ping 30000 ------- 0 2.0 3.0 -1 52
+ 1.90332 3 4 ping 64 ------- 0 3.0 2.0 -1 53
- 1.90332 3 4 ping 64 ------- 0 3.0 2.0 -1 53
r 1.904323 3 4 ping 64 ------- 0 3.0 2.0 -1 53
+ 1.904323 4 2 ping 64 ------- 0 3.0 2.0 -1 53
- 1.904323 4 2 ping 64 ------- 0 3.0 2.0 -1 53
r 1.905323 4 2 ping 64 ------- 0 3.0 2.0 -1 53
+ 2 2 4 ping 30000 ------- 0 2.0 3.0 -1 54
- 2 2 4 ping 30000 ------- 0 2.0 3.0 -1 54
r 2.00112 2 4 ping 30000 ------- 0 2.0 3.0 -1 54
+ 2.00112 4 3 ping 30000 ------- 0 2.0 3.0 -1 54
- 2.00112 4 3 ping 30000 ------- 0 2.0 3.0 -1 54
r 2.00332 4 3 ping 30000 ------- 0 2.0 3.0 -1 54
+ 2.00332 3 4 ping 64 ------- 0 3.0 2.0 -1 55
- 2.00332 3 4 ping 64 ------- 0 3.0 2.0 -1 55
r 2.004323 3 4 ping 64 ------- 0 3.0 2.0 -1 55
+ 2.004323 4 2 ping 64 ------- 0 3.0 2.0 -1 55
- 2.004323 4 2 ping 64 ------- 0 3.0 2.0 -1 55
r 2.005323 4 2 ping 64 ------- 0 3.0 2.0 -1 55
+ 2.1 2 4 ping 30000 ------- 0 2.0 3.0 -1 56
- 2.1 2 4 ping 30000 ------- 0 2.0 3.0 -1 56
r 2.10112 2 4 ping 30000 ------- 0 2.0 3.0 -1 56
+ 2.10112 4 3 ping 30000 ------- 0 2.0 3.0 -1 56
- 2.10112 4 3 ping 30000 ------- 0 2.0 3.0 -1 56
- 2.101398 4 5 ping 50000 ------- 0 0.0 5.0 -1 31
r 2.102398 4 5 ping 50000 ------- 0 0.0 5.0 -1 28
+ 2.102398 5 4 ping 64 ------- 0 5.0 0.0 -1 57
- 2.102398 5 4 ping 64 ------- 0 5.0 0.0 -1 57
r 2.10332 4 3 ping 30000 ------- 0 2.0 3.0 -1 56
+ 2.10332 3 4 ping 64 ------- 0 3.0 2.0 -1 58
- 2.10332 3 4 ping 64 ------- 0 3.0 2.0 -1 58
r 2.10391 5 4 ping 64 ------- 0 5.0 0.0 -1 57
+ 2.10391 4 0 ping 64 ------- 0 5.0 0.0 -1 57
- 2.10391 4 0 ping 64 ------- 0 5.0 0.0 -1 57
r 2.104323 3 4 ping 64 ------- 0 3.0 2.0 -1 58
+ 2.104323 4 2 ping 64 ------- 0 3.0 2.0 -1 58
- 2.104323 4 2 ping 64 ------- 0 3.0 2.0 -1 58
r 2.104911 4 0 ping 64 ------- 0 5.0 0.0 -1 57
r 2.105323 4 2 ping 64 ------- 0 3.0 2.0 -1 58
+ 2.2 2 4 ping 30000 ------- 0 2.0 3.0 -1 59
- 2.2 2 4 ping 30000 ------- 0 2.0 3.0 -1 59
r 2.20112 2 4 ping 30000 ------- 0 2.0 3.0 -1 59
+ 2.20112 4 3 ping 30000 ------- 0 2.0 3.0 -1 59
- 2.20112 4 3 ping 30000 ------- 0 2.0 3.0 -1 59
r 2.20332 4 3 ping 30000 ------- 0 2.0 3.0 -1 59
+ 2.20332 3 4 ping 64 ------- 0 3.0 2.0 -1 60
- 2.20332 3 4 ping 64 ------- 0 3.0 2.0 -1 60
r 2.204323 3 4 ping 64 ------- 0 3.0 2.0 -1 60
+ 2.204323 4 2 ping 64 ------- 0 3.0 2.0 -1 60
- 2.204323 4 2 ping 64 ------- 0 3.0 2.0 -1 60
r 2.205323 4 2 ping 64 ------- 0 3.0 2.0 -1 60
+ 2.3 2 4 ping 30000 ------- 0 2.0 3.0 -1 61
- 2.3 2 4 ping 30000 ------- 0 2.0 3.0 -1 61
r 2.30112 2 4 ping 30000 ------- 0 2.0 3.0 -1 61
+ 2.30112 4 3 ping 30000 ------- 0 2.0 3.0 -1 61
- 2.30112 4 3 ping 30000 ------- 0 2.0 3.0 -1 61
r 2.30332 4 3 ping 30000 ------- 0 2.0 3.0 -1 61
+ 2.30332 3 4 ping 64 ------- 0 3.0 2.0 -1 62
- 2.30332 3 4 ping 64 ------- 0 3.0 2.0 -1 62
r 2.304323 3 4 ping 64 ------- 0 3.0 2.0 -1 62
+ 2.304323 4 2 ping 64 ------- 0 3.0 2.0 -1 62
- 2.304323 4 2 ping 64 ------- 0 3.0 2.0 -1 62
r 2.305323 4 2 ping 64 ------- 0 3.0 2.0 -1 62
+ 2.4 2 4 ping 30000 ------- 0 2.0 3.0 -1 63
- 2.4 2 4 ping 30000 ------- 0 2.0 3.0 -1 63
r 2.40112 2 4 ping 30000 ------- 0 2.0 3.0 -1 63
+ 2.40112 4 3 ping 30000 ------- 0 2.0 3.0 -1 63
- 2.40112 4 3 ping 30000 ------- 0 2.0 3.0 -1 63
r 2.40332 4 3 ping 30000 ------- 0 2.0 3.0 -1 63
+ 2.40332 3 4 ping 64 ------- 0 3.0 2.0 -1 64
- 2.40332 3 4 ping 64 ------- 0 3.0 2.0 -1 64
r 2.404323 3 4 ping 64 ------- 0 3.0 2.0 -1 64
+ 2.404323 4 2 ping 64 ------- 0 3.0 2.0 -1 64
- 2.404323 4 2 ping 64 ------- 0 3.0 2.0 -1 64
r 2.405323 4 2 ping 64 ------- 0 3.0 2.0 -1 64
+ 2.5 2 4 ping 30000 ------- 0 2.0 3.0 -1 65
- 2.5 2 4 ping 30000 ------- 0 2.0 3.0 -1 65
r 2.50112 2 4 ping 30000 ------- 0 2.0 3.0 -1 65
+ 2.50112 4 3 ping 30000 ------- 0 2.0 3.0 -1 65
- 2.50112 4 3 ping 30000 ------- 0 2.0 3.0 -1 65
- 2.501398 4 5 ping 50000 ------- 0 0.0 5.0 -1 35
r 2.502398 4 5 ping 50000 ------- 0 0.0 5.0 -1 31
+ 2.502398 5 4 ping 64 ------- 0 5.0 0.0 -1 66
- 2.502398 5 4 ping 64 ------- 0 5.0 0.0 -1 66
r 2.50332 4 3 ping 30000 ------- 0 2.0 3.0 -1 65
+ 2.50332 3 4 ping 64 ------- 0 3.0 2.0 -1 67
- 2.50332 3 4 ping 64 ------- 0 3.0 2.0 -1 67
r 2.50391 5 4 ping 64 ------- 0 5.0 0.0 -1 66
+ 2.50391 4 0 ping 64 ------- 0 5.0 0.0 -1 66
- 2.50391 4 0 ping 64 ------- 0 5.0 0.0 -1 66
r 2.504323 3 4 ping 64 ------- 0 3.0 2.0 -1 67
+ 2.504323 4 2 ping 64 ------- 0 3.0 2.0 -1 67
- 2.504323 4 2 ping 64 ------- 0 3.0 2.0 -1 67
r 2.504911 4 0 ping 64 ------- 0 5.0 0.0 -1 66
r 2.505323 4 2 ping 64 ------- 0 3.0 2.0 -1 67
+ 2.6 2 4 ping 30000 ------- 0 2.0 3.0 -1 68
- 2.6 2 4 ping 30000 ------- 0 2.0 3.0 -1 68
r 2.60112 2 4 ping 30000 ------- 0 2.0 3.0 -1 68
+ 2.60112 4 3 ping 30000 ------- 0 2.0 3.0 -1 68
- 2.60112 4 3 ping 30000 ------- 0 2.0 3.0 -1 68
r 2.60332 4 3 ping 30000 ------- 0 2.0 3.0 -1 68
+ 2.60332 3 4 ping 64 ------- 0 3.0 2.0 -1 69
- 2.60332 3 4 ping 64 ------- 0 3.0 2.0 -1 69
r 2.604323 3 4 ping 64 ------- 0 3.0 2.0 -1 69
+ 2.604323 4 2 ping 64 ------- 0 3.0 2.0 -1 69
- 2.604323 4 2 ping 64 ------- 0 3.0 2.0 -1 69
r 2.605323 4 2 ping 64 ------- 0 3.0 2.0 -1 69
+ 2.7 2 4 ping 30000 ------- 0 2.0 3.0 -1 70
- 2.7 2 4 ping 30000 ------- 0 2.0 3.0 -1 70
r 2.70112 2 4 ping 30000 ------- 0 2.0 3.0 -1 70
+ 2.70112 4 3 ping 30000 ------- 0 2.0 3.0 -1 70
- 2.70112 4 3 ping 30000 ------- 0 2.0 3.0 -1 70
r 2.70332 4 3 ping 30000 ------- 0 2.0 3.0 -1 70
+ 2.70332 3 4 ping 64 ------- 0 3.0 2.0 -1 71
- 2.70332 3 4 ping 64 ------- 0 3.0 2.0 -1 71
r 2.704323 3 4 ping 64 ------- 0 3.0 2.0 -1 71
+ 2.704323 4 2 ping 64 ------- 0 3.0 2.0 -1 71
- 2.704323 4 2 ping 64 ------- 0 3.0 2.0 -1 71
r 2.705323 4 2 ping 64 ------- 0 3.0 2.0 -1 71
+ 2.8 2 4 ping 30000 ------- 0 2.0 3.0 -1 72
- 2.8 2 4 ping 30000 ------- 0 2.0 3.0 -1 72
r 2.80112 2 4 ping 30000 ------- 0 2.0 3.0 -1 72
+ 2.80112 4 3 ping 30000 ------- 0 2.0 3.0 -1 72
- 2.80112 4 3 ping 30000 ------- 0 2.0 3.0 -1 72
r 2.80332 4 3 ping 30000 ------- 0 2.0 3.0 -1 72
+ 2.80332 3 4 ping 64 ------- 0 3.0 2.0 -1 73
- 2.80332 3 4 ping 64 ------- 0 3.0 2.0 -1 73
r 2.804323 3 4 ping 64 ------- 0 3.0 2.0 -1 73
+ 2.804323 4 2 ping 64 ------- 0 3.0 2.0 -1 73
- 2.804323 4 2 ping 64 ------- 0 3.0 2.0 -1 73
r 2.805323 4 2 ping 64 ------- 0 3.0 2.0 -1 73
+ 2.9 2 4 ping 30000 ------- 0 2.0 3.0 -1 74
- 2.9 2 4 ping 30000 ------- 0 2.0 3.0 -1 74
r 2.90112 2 4 ping 30000 ------- 0 2.0 3.0 -1 74
+ 2.90112 4 3 ping 30000 ------- 0 2.0 3.0 -1 74
- 2.90112 4 3 ping 30000 ------- 0 2.0 3.0 -1 74
- 2.901398 4 5 ping 50000 ------- 0 0.0 5.0 -1 38
r 2.902398 4 5 ping 50000 ------- 0 0.0 5.0 -1 35
+ 2.902398 5 4 ping 64 ------- 0 5.0 0.0 -1 75
- 2.902398 5 4 ping 64 ------- 0 5.0 0.0 -1 75
r 2.90332 4 3 ping 30000 ------- 0 2.0 3.0 -1 74
+ 2.90332 3 4 ping 64 ------- 0 3.0 2.0 -1 76
- 2.90332 3 4 ping 64 ------- 0 3.0 2.0 -1 76
r 2.90391 5 4 ping 64 ------- 0 5.0 0.0 -1 75
+ 2.90391 4 0 ping 64 ------- 0 5.0 0.0 -1 75
- 2.90391 4 0 ping 64 ------- 0 5.0 0.0 -1 75
r 2.904323 3 4 ping 64 ------- 0 3.0 2.0 -1 76
+ 2.904323 4 2 ping 64 ------- 0 3.0 2.0 -1 76
- 2.904323 4 2 ping 64 ------- 0 3.0 2.0 -1 76
r 2.904911 4 0 ping 64 ------- 0 5.0 0.0 -1 75
r 2.905323 4 2 ping 64 ------- 0 3.0 2.0 -1 76
